! Tyco Electronics Strada Whisper System
! THRU_C8C9
!! 
!! SYSTEM DESCRIPTION: Daughtercard-Connector-Backplane-Connector-Daughtercard
!! PCB DESCRIPTION: BP: 250mil, 26 lyrs, Nelco4000-6, bottom layer route, no stub, 6-9-6mil 30" traces; DC: 150mil, 16 lyrs, Nelco4000-6, bottom layer route, no stub, 6-9-6mil 5" traces
!! CONNECTOR DESCRIPTION: STRADA Whisper, Right Angle Receptacle to Vertical Header
!! MODEL DESCRIPTION: Tyco Electronics System 4-port S-parameter 
!! MODEL STATUS: Developmental
!! MODEL GEOMETRY: Channel Model
!! MODEL FREQUENCY RANGE: DC to 40 GHz in 10 MHz frequency steps
!! MODEL EDGE RATE LIMITATION: 12.5 ps (Using conservative 0.5/Fmax rule of thumb)
!! 
!! TIME-DOMAIN TRANSFORM CAUTIONS: 
!! 1.) Do not simulate transient edge rates faster than the number listed above.  Edge rates faster than this number 
!!     contain significant spectral content at frequencies above the model's highest frequency. 
!! 2.) Even when simulating edge rates that are slower than the number listed above, be aware that the best time 
!!     resolution possible with a direct iFFT is (1 / 2Fmax).  As a result, time resolution is typically not adequate 
!!     for most time-domain simulations unless tricks such as windowing are used to minimize leakage and aliasing. 
!! 3.) Because the model has a uniform frequency step, a direct iFFT will result in an impulse that that has a time 
!!     length given by either (1 / Fstep) or (1 / 2Fstep), depending on the transform being used.  Care has been taken 
!!     in selecting the frequency step to ensure a settled impulse response for the model.  Therefore, convolution with 
!!     the model's impulse response should present no issues.  However, if directly concatenating s-parameter models 
!!     in the frequency domain a user must either interpolate necessary interim frequencies or complete impulse response 
!!     zero-padding.  Impulse response zero-padding is more difficult, but more accurate. 
!! 
!! PORT DEFINITIONS: 
!! Port   1  ----->  Side A                     C8                    Side B  <-----  Port   2
!! Port   3  ----->  Side A                     C9                    Side B  <-----  Port   4
!! 
!!!!!!!!!!!!!!!!!!!!!!!!!!!!!!!!!!!!!!!!!!!!!!!!!!!!!!!!!!!!!!!!!!!!!!!!!!!!!!!!!!!!!!!!!!!!!!!!!!!!!!!!!!!!!!!!!!!!!!!!
!
! Created Wed Apr 27 14:57:46 2011
# hz S ma R 50
! 4 Port Network Data from SP1.SP block
! freq  magS11  angS11  magS12  angS12  magS13  angS13  magS14  angS14  
!       magS21  angS21  magS22  angS22  magS23  angS23  magS24  angS24  
!       magS31  angS31  magS32  angS32  magS33  angS33  magS34  angS34  
!       magS41  angS41  magS42  angS42  magS43  angS43  magS44  angS44  
!     
                 0      0.0392470997    1.11457577e-023        0.958653021   -4.57240417e-025      0.00340512179    1.28464456e-022      0.00326268606                180
                      0.958653021   -4.57240417e-025       0.0392470997    1.11457577e-023      0.00326268606                180      0.00340512179    1.28464456e-022
                    0.00340512179    1.28464456e-022      0.00326268606                180       0.0392733356    1.11382332e-023        0.958646266   -4.57231109e-025
                    0.00326268606                180      0.00340512179    1.28464456e-022        0.958646266   -4.57231109e-025       0.0392733356    1.11382332e-023

          10000000      0.0837019673         12.7999475        0.924284577        -29.2161084       0.0527410297         57.7478352       0.0041098819         138.208097
                      0.924284577        -29.2161084       0.0837019673         12.7999475       0.0041098819         138.208097       0.0527410297         57.7478352
                     0.0527410297         57.7478352       0.0041098819         138.208097        0.083550415         12.7934548        0.923017283         -29.216531
                     0.0041098819         138.208097       0.0527410297         57.7478352        0.923017283         -29.216531        0.083550415         12.7934548

          20000000       0.103775191        -2.29414985        0.906735199         -57.039502       0.0910645367         33.0334611        0.006597902         83.3703468
                      0.906735199         -57.039502        0.103775191        -2.29414985        0.006597902         83.3703468       0.0910645367         33.0334611
                     0.0910645367         33.0334611        0.006597902         83.3703468        0.103553284        -2.28517779        0.905496265        -57.0362958
                      0.006597902         83.3703468       0.0910645367         33.0334611        0.905496265        -57.0362958        0.103553284        -2.28517779

          30000000       0.107072657        -21.2220774        0.893895359        -84.4935892        0.108097568         7.94065291      0.00935930207         28.6403816
                      0.893895359        -84.4935892        0.107072657        -21.2220774      0.00935930207         28.6403816        0.108097568         7.94065291
                      0.108097568         7.94065291      0.00935930207         28.6403816        0.106796903        -21.1952063        0.892678337        -84.4878664
                    0.00935930207         28.6403816        0.108097568         7.94065291        0.892678337        -84.4878664        0.106796903        -21.1952063

          40000000      0.0938036405          -41.22846         0.88530834        -111.832422        0.101045717        -16.4563869       0.0116060207         -23.821407
                       0.88530834        -111.832422       0.0938036405          -41.22846       0.0116060207         -23.821407        0.101045717        -16.4563869
                      0.101045717        -16.4563869       0.0116060207         -23.821407       0.0934902579        -41.1783975        0.884106127        -111.824462
                     0.0116060207         -23.821407        0.101045717        -16.4563869        0.884106127        -111.824462       0.0934902579        -41.1783975

          50000000       0.066358505        -60.1916036        0.879109128        -139.243377        0.071896919        -38.4039176       0.0126174028        -73.9257763
                      0.879109128        -139.243377        0.066358505        -60.1916036       0.0126174028        -73.9257763        0.071896919        -38.4039176
                      0.071896919        -38.4039176       0.0126174028        -73.9257763       0.0660233198        -60.0969321        0.877917397        -139.233224
                     0.0126174028        -73.9257763        0.071896919        -38.4039176        0.877917397        -139.233224       0.0660233198        -60.0969321

          60000000      0.0308834363        -68.5588865        0.872376555        -166.768071       0.0293465608        -44.2421109       0.0119507479        -120.688313
                      0.872376555        -166.768071       0.0308834363        -68.5588865       0.0119507479        -120.688313       0.0293465608        -44.2421109
                     0.0293465608        -44.2421109       0.0119507479        -120.688313       0.0305623725        -68.2205128        0.871195625        -166.755659
                     0.0119507479        -120.688313       0.0293465608        -44.2421109        0.871195625        -166.755659       0.0305623725        -68.2205128

          70000000      0.0188062914         8.63875202        0.863213745         165.714221       0.0303705669         45.1434236      0.00979041599        -160.710186
                      0.863213745         165.714221       0.0188062914         8.63875202      0.00979041599        -160.710186       0.0303705669         45.1434236
                     0.0303705669         45.1434236      0.00979041599        -160.710186       0.0190174564         9.59681788        0.862047472         165.729027
                    0.00979041599        -160.710186       0.0303705669         45.1434236        0.862047472         165.729027       0.0190174564         9.59681788

          80000000      0.0465731479         17.1384576        0.852276222         138.366524       0.0711529287         38.6455115       0.0074067544         174.023143
                      0.852276222         138.366524       0.0465731479         17.1384576       0.0074067544         174.023143       0.0711529287         38.6455115
                     0.0711529287         38.6455115       0.0074067544         174.023143       0.0469039768         17.4033924        0.851128985         138.383895
                     0.0074067544         174.023143       0.0711529287         38.6455115        0.851128985         138.383895       0.0469039768         17.4033924

          90000000      0.0650791484       -0.566919702        0.841941144         111.242273       0.0979659054         17.8886911      0.00727822662         164.205151
                      0.841941144         111.242273       0.0650791484       -0.566919702      0.00727822662         164.205151       0.0979659054         17.8886911
                     0.0979659054         17.8886911      0.00727822662         164.205151       0.0654131885       -0.354382252        0.840815952         111.262353
                    0.00727822662         164.205151       0.0979659054         17.8886911        0.840815952         111.262353       0.0654131885       -0.354382252

         100000000       0.068455378        -21.3917474        0.834148961         84.2463822        0.103952118          -4.546299      0.00970155095         143.173956
                      0.834148961         84.2463822        0.068455378        -21.3917474      0.00970155095         143.173956        0.103952118          -4.546299
                      0.103952118          -4.546299      0.00970155095         143.173956       0.0687729387        -21.1622932        0.833047835         84.2691831
                    0.00970155095         143.173956        0.103952118          -4.546299        0.833047835         84.2691831       0.0687729387        -21.1622932

         110000000      0.0568444015        -42.1258361        0.828963811         57.2159578       0.0881394822        -26.2768274       0.0123011644         108.551619
                      0.828963811         57.2159578       0.0568444015        -42.1258361       0.0123011644         108.551619       0.0881394822        -26.2768274
                     0.0881394822        -26.2768274       0.0123011644         108.551619       0.0571255826        -41.8380873        0.827888794         57.2412648
                     0.0123011644         108.551619       0.0881394822        -26.2768274        0.827888794         57.2412648       0.0571255826        -41.8380873

         120000000      0.0335347957        -58.2665395        0.824593764         30.0439755       0.0545257976        -42.9240578       0.0135883649         69.0306554
                      0.824593764         30.0439755       0.0335347957        -58.2665395       0.0135883649         69.0306554       0.0545257976        -42.9240578
                     0.0545257976        -42.9240578       0.0135883649         69.0306554       0.0337659889        -57.8272122        0.823546577         30.0713547
                     0.0135883649         69.0306554       0.0545257976        -42.9240578        0.823546577         30.0713547       0.0337659889        -57.8272122

         130000000      0.0106708032        -18.3255402        0.818791094         2.76473249       0.0195999137        -13.3725216       0.0130660096         29.9024185
                      0.818791094         2.76473249       0.0106708032        -18.3255402       0.0130660096         29.9024185       0.0195999137        -13.3725216
                     0.0195999137        -13.3725216       0.0130660096         29.9024185       0.0109397538        -18.2003554         0.81777128         2.79372711
                     0.0130660096         29.9024185       0.0195999137        -13.3725216         0.81777128         2.79372711       0.0109397538        -18.2003554

         140000000       0.029748533         33.5341923        0.810770934        -24.4754208       0.0453127267         42.4736132       0.0111667493        -3.82195068
                      0.810770934        -24.4754208        0.029748533         33.5341923       0.0111667493        -3.82195068       0.0453127267         42.4736132
                     0.0453127267         42.4736132       0.0111667493        -3.82195068       0.0299620969         33.2891461        0.809774812        -24.4449782
                     0.0111667493        -3.82195068       0.0453127267         42.4736132        0.809774812        -24.4449782       0.0299620969         33.2891461

         150000000       0.049439969         18.2017116        0.801843056        -51.5514613       0.0797350444         29.3183059      0.00941213021         -26.544104
                      0.801843056        -51.5514613        0.049439969         18.2017116      0.00941213021         -26.544104       0.0797350444         29.3183059
                     0.0797350444         29.3183059      0.00941213021         -26.544104       0.0497979029         18.1573518        0.800865914        -51.5192705
                    0.00941213021         -26.544104       0.0797350444         29.3183059        0.800865914        -51.5192705       0.0497979029         18.1573518

         160000000      0.0566131535           -2.73395        0.794104412        -78.4667596       0.0981766803         8.88865776      0.00973379785        -42.5632199
                      0.794104412        -78.4667596       0.0566131535           -2.73395      0.00973379785        -42.5632199       0.0981766803         8.88865776
                     0.0981766803         8.88865776      0.00973379785        -42.5632199       0.0571482595        -2.68565324         0.79314503        -78.4322074
                    0.00973379785        -42.5632199       0.0981766803         8.88865776         0.79314503        -78.4322074       0.0571482595        -2.68565324

         170000000      0.0495227092        -24.1613246        0.788664802        -105.341866       0.0962461815        -12.4875321       0.0118810404        -67.1655491
                      0.788664802        -105.341866       0.0495227092        -24.1613246       0.0118810404        -67.1655491       0.0962461815        -12.4875321
                     0.0962461815        -12.4875321       0.0118810404        -67.1655491        0.050226047        -24.0462674        0.787728668         -105.30446
                     0.0118810404        -67.1655491       0.0962461815        -12.4875321        0.787728668         -105.30446        0.050226047        -24.0462674

         180000000      0.0296656296        -42.3808068        0.784833384        -132.315311       0.0745427646        -32.0998257       0.0139206181        -101.289594
                      0.784833384        -132.315311       0.0296656296        -42.3808068       0.0139206181        -101.289594       0.0745427646        -32.0998257
                     0.0745427646        -32.0998257       0.0139206181        -101.289594        0.030498674        -42.2645624        0.783931533        -132.275143
                     0.0139206181        -101.289594       0.0745427646        -32.0998257        0.783931533        -132.275143        0.030498674        -42.2645624

         190000000     0.00688250698         11.4130471        0.780649658        -159.430992       0.0394267515        -40.7473798       0.0145090346         -139.44033
                      0.780649658        -159.430992      0.00688250698         11.4130471       0.0145090346         -139.44033       0.0394267515        -40.7473798
                     0.0394267515        -40.7473798       0.0145090346         -139.44033      0.00718354259         4.69550105        0.779792212        -159.388898
                     0.0145090346         -139.44033       0.0394267515        -40.7473798        0.779792212        -159.388898      0.00718354259         4.69550105

         200000000      0.0319935384          62.716914        0.774514967          173.40534       0.0235164712         22.4014108       0.0132459893        -176.842371
                      0.774514967          173.40534       0.0319935384          62.716914       0.0132459893        -176.842371       0.0235164712         22.4014108
                     0.0235164712         22.4014108       0.0132459893        -176.842371       0.0313008356         61.9406894        0.773702685         173.448152
                     0.0132459893        -176.842371       0.0235164712         22.4014108        0.773702685         173.448152       0.0313008356         61.9406894

         210000000      0.0568626845         43.8717443        0.766658376           146.3457       0.0568081061         38.3823593       0.0107592363         152.163738
                      0.766658376           146.3457       0.0568626845         43.8717443       0.0107592363         152.163738       0.0568081061         38.3823593
                     0.0568081061         38.3823593       0.0107592363         152.163738       0.0562909486         43.5647034        0.765879654         146.388421
                     0.0107592363         152.163738       0.0568081061         38.3823593        0.765879654         146.388421       0.0562909486         43.5647034

         220000000      0.0699481267         21.8214055        0.758892935         119.462909       0.0847687043         22.5440044       0.0088884178         134.248997
                      0.758892935         119.462909       0.0699481267         21.8214055       0.0088884178         134.248997       0.0847687043         22.5440044
                     0.0847687043         22.5440044       0.0088884178         134.248997       0.0696183122         21.6378413        0.758130523         119.505727
                     0.0088884178         134.248997       0.0847687043         22.5440044        0.758130523         119.505727       0.0696183122         21.6378413

         230000000      0.0680056157       0.0203460864        0.752994127         92.6916686       0.0958508653         2.52720399       0.0097022487         121.301843
                      0.752994127         92.6916686       0.0680056157       0.0203460864       0.0097022487         121.301843       0.0958508653         2.52720399
                     0.0958508653         2.52720399       0.0097022487         121.301843       0.0679883671        -0.12575644        0.752236927         92.7357287
                     0.0097022487         121.301843       0.0958508653         2.52720399        0.752236927         92.7357287       0.0679883671        -0.12575644

         240000000      0.0509983292        -19.3336946        0.749313241         65.8835202       0.0874844221        -17.6005398       0.0122999113         95.7785637
                      0.749313241         65.8835202       0.0509983292        -19.3336946       0.0122999113         95.7785637       0.0874844221        -17.6005398
                     0.0874844221        -17.6005398       0.0122999113         95.7785637       0.0513204228         -19.542809        0.748565175         65.9302254
                     0.0122999113         95.7785637       0.0874844221        -17.6005398        0.748565175         65.9302254       0.0513204228         -19.542809

         250000000      0.0230503818        -23.0206848        0.746477034         38.9198392        0.061721145        -34.0559184        0.014425763         60.2005306
                      0.746477034         38.9198392       0.0230503818        -23.0206848        0.014425763         60.2005306        0.061721145        -34.0559184
                      0.061721145        -34.0559184        0.014425763         60.2005306       0.0235925583        -24.1115122        0.745757412         38.9698717
                      0.014425763         60.2005306        0.061721145        -34.0559184        0.745757412         38.9698717       0.0235925583        -24.1115122

         260000000      0.0233133486         62.1046112        0.742332669         11.8132069       0.0287613049        -27.1374188       0.0147741994         20.8158407
                      0.742332669         11.8132069       0.0233133486         62.1046112       0.0147741994         20.8158407       0.0287613049        -27.1374188
                     0.0287613049        -27.1374188       0.0147741994         20.8158407       0.0224917298         60.7634375        0.741665667         11.8658337
                     0.0147741994         20.8158407       0.0287613049        -27.1374188        0.741665667         11.8658337       0.0224917298         60.7634375

         270000000      0.0578121124         59.4096131        0.735755988        -15.2870664        0.034199098         35.2994742        0.013030955        -17.7084235
                      0.735755988        -15.2870664       0.0578121124         59.4096131        0.013030955        -17.7084235        0.034199098         35.2994742
                      0.034199098         35.2994742        0.013030955        -17.7084235       0.0566760769         59.1973986        0.735153674         -15.233811
                      0.013030955        -17.7084235        0.034199098         35.2994742        0.735153674         -15.233811       0.0566760769         59.1973986

         280000000       0.085401153         40.1288863        0.727743054        -42.2185979       0.0662349052         33.9136721      0.00989143908        -49.2692309
                      0.727743054        -42.2185979        0.085401153         40.1288863      0.00989143908        -49.2692309       0.0662349052         33.9136721
                     0.0662349052         33.9136721      0.00989143908        -49.2692309       0.0842092968         40.0602129        0.727194926        -42.1668078
                    0.00989143908        -49.2692309       0.0662349052         33.9136721        0.727194926        -42.1668078       0.0842092968         40.0602129

         290000000      0.0985134592          18.946988        0.720528742        -68.9451892       0.0879209777         17.2364804       0.0073744019        -63.1800613
                      0.720528742        -68.9451892       0.0985134592          18.946988       0.0073744019        -63.1800613       0.0879209777         17.2364804
                     0.0879209777         17.2364804       0.0073744019        -63.1800613        0.097414552         18.9271213        0.720006884        -68.8958131
                     0.0073744019        -63.1800613       0.0879209777         17.2364804        0.720006884        -68.8958131        0.097414552         18.9271213

         300000000      0.0944961807        -1.70622829        0.715774395        -95.5800023        0.092583427        -1.80966827      0.00826383039        -68.1389996
                      0.715774395        -95.5800023       0.0944961807        -1.70622829      0.00826383039        -68.1389996        0.092583427        -1.80966827
                      0.092583427        -1.80966827      0.00826383039        -68.1389996       0.0936187529        -1.70303534        0.715249424        -95.5322564
                    0.00826383039        -68.1389996        0.092583427        -1.80966827        0.715249424        -95.5322564       0.0936187529        -1.70303534

         310000000      0.0739130978        -19.6299088        0.713436837        -122.300389       0.0792475808        -19.8588852       0.0113231254        -91.9775695
                      0.713436837        -122.300389       0.0739130978        -19.6299088       0.0113231254        -91.9775695       0.0792475808        -19.8588852
                     0.0792475808        -19.8588852       0.0113231254        -91.9775695       0.0733589475        -19.6268714        0.712894368        -122.252139
                     0.0113231254        -91.9775695       0.0792475808        -19.8588852        0.712894368        -122.252139       0.0733589475        -19.6268714

         320000000      0.0419924795         -25.298029        0.711752281        -149.225703       0.0516056216        -30.8598868       0.0137810977        -128.015017
                      0.711752281        -149.225703       0.0419924795         -25.298029       0.0137810977        -128.015017       0.0516056216        -30.8598868
                     0.0516056216        -30.8598868       0.0137810977        -128.015017       0.0417871572        -25.4065164         0.71120241        -149.174634
                     0.0137810977        -128.015017       0.0516056216        -30.8598868         0.71120241        -149.174634       0.0417871572        -25.4065164

         330000000      0.0285856955         26.7195271        0.708357536        -176.320446       0.0269211259        -3.00848407       0.0143184595        -167.954562
                      0.708357536        -176.320446       0.0285856955         26.7195271       0.0143184595        -167.954562       0.0269211259        -3.00848407
                     0.0269211259        -3.00848407       0.0143184595        -167.954562       0.0282428762         26.3074791        0.707831088        -176.265505
                     0.0143184595        -167.954562       0.0269211259        -3.00848407        0.707831088        -176.265505       0.0282428762         26.3074791

         340000000      0.0616803285          43.799667        0.702164142         156.595437       0.0458795959         36.4075899       0.0126589722         153.074399
                      0.702164142         156.595437       0.0616803285          43.799667       0.0126589722         153.074399       0.0458795959         36.4075899
                     0.0458795959         36.4075899       0.0126589722         153.074399         0.06089137         43.7698676        0.701694121         156.653221
                     0.0126589722         153.074399       0.0458795959         36.4075899        0.701694121         156.653221         0.06089137         43.7698676

         350000000      0.0944170612         29.8334905        0.694343334         129.703501       0.0744666274         28.9446033      0.00950526411         121.146059
                      0.694343334         129.703501       0.0944170612         29.8334905      0.00950526411         121.146059       0.0744666274         28.9446033
                     0.0744666274         28.9446033      0.00950526411         121.146059        0.093310495         29.8936204        0.693943402         129.761509
                    0.00950526411         121.146059       0.0744666274         28.9446033        0.693943402         129.761509        0.093310495         29.8936204

         360000000       0.113271406         10.8931785        0.687267787         103.042257       0.0905557252         12.5061997      0.00684262673         108.082845
                      0.687267787         103.042257        0.113271406         10.8931785      0.00684262673         108.082845       0.0905557252         12.5061997
                     0.0905557252         12.5061997      0.00684262673         108.082845        0.111974216         10.9998692        0.686924227          103.09777
                    0.00684262673         108.082845       0.0905557252         12.5061997        0.686924227          103.09777        0.111974216         10.9998692

         370000000       0.114715424        -8.66947695        0.682668478         76.4932707       0.0898850493        -4.98875875      0.00765588663         106.561375
                      0.682668478         76.4932707        0.114715424        -8.66947695      0.00765588663         106.561375       0.0898850493        -4.98875875
                     0.0898850493        -4.98875875      0.00765588663         106.561375         0.11336879        -8.51534948        0.682348588         76.5449251
                    0.00765588663         106.561375       0.0898850493        -4.98875875        0.682348588         76.5449251         0.11336879        -8.51534948

         380000000      0.0988200274        -26.8514308        0.680608639         49.8735036       0.0731454379         -19.906362       0.0107965524         84.5137077
                      0.680608639         49.8735036       0.0988200274        -26.8514308       0.0107965524         84.5137077       0.0731454379         -19.906362
                     0.0731454379         -19.906362       0.0107965524         84.5137077       0.0975757761        -26.6218054        0.680277366         49.9219834
                     0.0107965524         84.5137077       0.0731454379         -19.906362        0.680277366         49.9219834       0.0975757761        -26.6218054

         390000000      0.0693257993        -39.3772757        0.679531372         23.0539241       0.0464537784        -23.0740967       0.0134397336         49.7677221
                      0.679531372         23.0539241       0.0693257993        -39.3772757       0.0134397336         49.7677221       0.0464537784        -23.0740967
                     0.0464537784        -23.0740967       0.0134397336         49.7677221       0.0683556367        -38.9698048        0.679168695         23.1016496
                     0.0134397336         49.7677221       0.0464537784        -23.0740967        0.679168695         23.1016496       0.0683556367        -38.9698048

         400000000      0.0393396913        -28.0377032        0.677251083         -3.9510826       0.0337342608         12.2530154       0.0143284753         11.3904825